#INFO: **** input file is /Users/carlos/GitHub/prism/tests/cvs_ip_mr_adc_2/short/hf_cas_4e_4o.py ****
# Copyright 2023 Prism Developers. All Rights Reserved.
#
# Licensed under the GNU General Public License v3.0;
# you may not use this file except in compliance with the License.
#
# Unless required by applicable law or agreed to in writing,
# software distributed under the License is distributed on an
# "AS IS" BASIS, WITHOUT WARRANTIES OR CONDITIONS OF ANY KIND,
# either express or implied.
#
# See the License file for the specific language governing
# permissions and limitations.
#
# Available at https://github.com/sokolov-group/prism
#
# Authors: Alexander Yu. Sokolov <alexander.y.sokolov@gmail.com>
#          Carlos E. V. de Moura <carlosevmoura@gmail.com>
#

import unittest
import numpy as np
import math
import pyscf.gto
import pyscf.scf
import pyscf.mcscf
import prism.interface
import prism.mr_adc

r = 0.917
mol = pyscf.gto.Mole()
mol.verbose = 4
mol.atom = [
            ['H', (0.0, 0.0, -r/2)],
            ['F', (0.0, 0.0,  r/2)]]
mol.basis = 'aug-cc-pvdz'
mol.symmetry = True
mol.build()

# RHF calculation
mf = pyscf.scf.RHF(mol)
mf.conv_tol = 1e-12

ehf = mf.scf()
mf.analyze()
print ("SCF energy: %f\n" % ehf)

# CASSCF calculation
mc = pyscf.mcscf.CASSCF(mf, 4, 4)

mc.conv_tol = 1e-11
mc.conv_tol_grad = 1e-6
mc.max_cycle_macro = 100
mc.verbose = 4

emc = mc.mc1step()[0]

mc.analyze()
print ("CASSCF energy: %f\n" % emc)

# MR-ADC calculation
interface = prism.interface.PYSCF(mf, mc, opt_einsum = True)
mr_adc = prism.mr_adc.MRADC(interface)
mr_adc.ncvs = 1
mr_adc.nroots = 4
mr_adc.s_thresh_singles = 1e-6
mr_adc.s_thresh_doubles = 1e-10
mr_adc.method_type = "cvs-ip"
mr_adc.method = "mr-adc(2)"

class KnownValues(unittest.TestCase):

    def test_cvs_ip_mr_adc2(self):

        e,p = mr_adc.kernel()

        self.assertAlmostEqual(e[0], 693.67507492, 4)
        self.assertAlmostEqual(e[1], 735.43509365, 4)

if __name__ == "__main__":
    print("IP calculations for different IP-MR-ADC methods")
    unittest.main()
#INFO: ******************** input file end ********************


System: uname_result(system='Darwin', node='CarlosMacBookPro', release='20.5.0', version='Darwin Kernel Version 20.5.0: Sat May  8 05:10:33 PDT 2021; root:xnu-7195.121.3~9/RELEASE_X86_64', machine='x86_64')  Threads 1
Python 3.9.12 (main, Jun  1 2022, 06:36:29) 
[Clang 12.0.0 ]
numpy 1.22.3  scipy 1.7.3
Date: Sun Apr  2 21:29:37 2023
PySCF version 2.0.1
PySCF path  /usr/local/Caskroom/miniconda/base/envs/compchem/lib/python3.9/site-packages/pyscf

[CONFIG] conf_file None
[INPUT] verbose = 4
[INPUT] num. atoms = 2
[INPUT] num. electrons = 10
[INPUT] charge = 0
[INPUT] spin (= nelec alpha-beta = 2S) = 0
[INPUT] symmetry True subgroup None
[INPUT] Mole.unit = angstrom
[INPUT]  1 H      0.000000000000   0.000000000000  -0.458500000000 AA    0.000000000000   0.000000000000  -0.866439428113 Bohr
[INPUT]  2 F      0.000000000000   0.000000000000   0.458500000000 AA    0.000000000000   0.000000000000   0.866439428113 Bohr

nuclear repulsion = 5.19366946377317
point group symmetry = Coov
num. orbitals of irrep A1 = 14
num. orbitals of irrep E1x = 7
num. orbitals of irrep E1y = 7
num. orbitals of irrep E2x = 2
num. orbitals of irrep E2y = 2
number of shells = 13
number of NR pGTOs = 46
number of NR cGTOs = 32
basis = aug-cc-pvdz
ecp = {}
CPU time:         1.29


******** <class 'pyscf.scf.hf_symm.SymAdaptedRHF'> ********
method = SymAdaptedRHF-RHF
initial guess = minao
damping factor = 0
level_shift factor = 0
DIIS = <class 'pyscf.scf.diis.CDIIS'>
diis_start_cycle = 1
diis_space = 8
SCF conv_tol = 1e-12
SCF conv_tol_grad = None
SCF max_cycles = 50
direct_scf = True
direct_scf_tol = 1e-13
chkfile to save SCF result = /var/folders/3l/j_26z9753t9c2998pwc56hhw0000gn/T/tmpanpwd9lp
max_memory 4000 MB (current use 0 MB)
Freeze 0 electrons in irreps []
    10 free electrons in irreps A1 E1x E1y E2x E2y
Set gradient conv threshold to 1e-06
init E= -99.8456248711572
HOMO (E1x) = -0.659585465796956  LUMO (A1) = 0.0239029399920716
cycle= 1 E= -100.00778932401  delta_E= -0.162  |g|= 0.375  |ddm|= 1.06
HOMO (E1y) = -0.584606533711898  LUMO (A1) = 0.0319503212960215
cycle= 2 E= -100.02747431421  delta_E= -0.0197  |g|=  0.2  |ddm|= 0.302
HOMO (E1x) = -0.660906674752082  LUMO (A1) = 0.0342998761858429
cycle= 3 E= -100.033275952314  delta_E= -0.0058  |g|= 0.0311  |ddm|= 0.0992
HOMO (E1x) = -0.649443401620484  LUMO (A1) = 0.0355750968849246
cycle= 4 E= -100.033450372345  delta_E= -0.000174  |g|= 0.00584  |ddm|= 0.0187
HOMO (E1x) = -0.650598805020858  LUMO (A1) = 0.0357978893823391
cycle= 5 E= -100.033465423833  delta_E= -1.51e-05  |g|= 0.00101  |ddm|= 0.00864
HOMO (E1x) = -0.65073726511737  LUMO (A1) = 0.0358011718573025
cycle= 6 E= -100.033466070012  delta_E= -6.46e-07  |g|= 0.000137  |ddm|= 0.00239
HOMO (E1x) = -0.650767955586428  LUMO (A1) = 0.0358053071419865
cycle= 7 E= -100.033466082053  delta_E= -1.2e-08  |g|= 1.12e-05  |ddm|= 0.000245
HOMO (E1y) = -0.650765562176315  LUMO (A1) = 0.0358057171108569
cycle= 8 E= -100.033466082097  delta_E= -4.44e-11  |g|= 1.47e-06  |ddm|= 2.08e-05
HOMO (E1y) = -0.65076580806945  LUMO (A1) = 0.035805784994722
cycle= 9 E= -100.033466082098  delta_E= -9.66e-13  |g|= 1.52e-07  |ddm|= 3.04e-06
HOMO (E1y) = -0.650765724471276  LUMO (A1) = 0.0358057907370986
Extra cycle  E= -100.033466082098  delta_E= 1.28e-13  |g|= 6.44e-08  |ddm|= 3.89e-07
converged SCF energy = -100.033466082098
**** SCF Summaries ****
Total Energy =                        -100.033466082098187
Nuclear Repulsion Energy =               5.193669463773174
One-electron Energy =                 -150.471594730639481
Two-electron Energy =                   45.244459184768111
Wave-function symmetry = Coov
occupancy for each irrep:     A1  E1x  E1y  E2x  E2y
                               3    1    1    0    0
**** MO energy ****
MO #1 (A1 #1), energy= -26.3109339548649 occ= 2
MO #2 (A1 #2), energy= -1.60756062017186 occ= 2
MO #3 (A1 #3), energy= -0.771311921284121 occ= 2
MO #4 (E1x #1), energy= -0.650765724471279 occ= 2
MO #5 (E1y #1), energy= -0.650765724471276 occ= 2
MO #6 (A1 #4), energy= 0.0358057907370986 occ= 0
MO #7 (A1 #5), energy= 0.19447259604407 occ= 0
MO #8 (E1x #2), energy= 0.244026248389523 occ= 0
MO #9 (E1y #2), energy= 0.244026248389524 occ= 0
MO #10 (A1 #6), energy= 0.256558308420185 occ= 0
MO #11 (A1 #7), energy= 0.361068128152048 occ= 0
MO #12 (E1x #3), energy= 0.402971764580516 occ= 0
MO #13 (E1y #3), energy= 0.402971764580516 occ= 0
MO #14 (A1 #8), energy= 0.66165368969383 occ= 0
MO #15 (A1 #9), energy= 0.940866161382188 occ= 0
MO #16 (E2x #1), energy= 1.34627038801853 occ= 0
MO #17 (E2y #1), energy= 1.34627038801853 occ= 0
MO #18 (E1x #4), energy= 1.43192984323208 occ= 0
MO #19 (E1y #4), energy= 1.43192984323208 occ= 0
MO #20 (A1 #10), energy= 1.62347400814324 occ= 0
MO #21 (E1x #5), energy= 1.67075296834786 occ= 0
MO #22 (E1y #5), energy= 1.67075296834786 occ= 0
MO #23 (A1 #11), energy= 2.06705134759672 occ= 0
MO #24 (E1x #6), energy= 2.16188779442958 occ= 0
MO #25 (E1y #6), energy= 2.16188779442958 occ= 0
MO #26 (A1 #12), energy= 2.67156443690442 occ= 0
MO #27 (A1 #13), energy= 3.5961329551807 occ= 0
MO #28 (E2x #2), energy= 4.85231059160105 occ= 0
MO #29 (E2y #2), energy= 4.85231059160104 occ= 0
MO #30 (E1x #7), energy= 4.92521640840461 occ= 0
MO #31 (E1y #7), energy= 4.92521640840461 occ= 0
MO #32 (A1 #14), energy= 5.15137493603721 occ= 0
 ** Mulliken pop on meta-lowdin orthogonal AOs  **
 ** Mulliken pop  **
pop of  0 H 1s        0.52398
pop of  0 H 2s        0.01576
pop of  0 H 3s        0.00641
pop of  0 H 2px       0.00240
pop of  0 H 2py       0.00240
pop of  0 H 2pz       0.00176
pop of  0 H 3px       0.00018
pop of  0 H 3py       0.00018
pop of  0 H 3pz       0.00086
pop of  1 F 1s        2.00000
pop of  1 F 2s        1.83649
pop of  1 F 3s        0.00312
pop of  1 F 4s        0.00148
pop of  1 F 2px       1.99359
pop of  1 F 2py       1.99359
pop of  1 F 2pz       1.60046
pop of  1 F 3px       0.00036
pop of  1 F 3py       0.00036
pop of  1 F 3pz       0.00234
pop of  1 F 4px       0.00167
pop of  1 F 4py       0.00167
pop of  1 F 4pz       0.00152
pop of  1 F 3dxy      0.00000
pop of  1 F 3dyz      0.00143
pop of  1 F 3dz^2     0.00536
pop of  1 F 3dxz      0.00143
pop of  1 F 3dx2-y2    0.00000
pop of  1 F 4dxy      0.00000
pop of  1 F 4dyz      0.00036
pop of  1 F 4dz^2     0.00046
pop of  1 F 4dxz      0.00036
pop of  1 F 4dx2-y2    0.00000
 ** Mulliken atomic charges  **
charge of  0H =      0.44606
charge of  1F =     -0.44606
Dipole moment(X, Y, Z, Debye):  0.00000,  0.00000, -1.93112
SCF energy: -100.033466


******** <class 'pyscf.mcscf.mc1step_symm.SymAdaptedCASSCF'> ********
CAS (2e+2e, 4o), ncore = 3, nvir = 25
max_cycle_macro = 100
max_cycle_micro = 4
conv_tol = 1e-11
conv_tol_grad = 1e-06
orbital rotation max_stepsize = 0.02
augmented hessian ah_max_cycle = 30
augmented hessian ah_conv_tol = 1e-12
augmented hessian ah_linear dependence = 1e-14
augmented hessian ah_level shift = 1e-08
augmented hessian ah_start_tol = 2.5
augmented hessian ah_start_cycle = 3
augmented hessian ah_grad_trust_region = 3
kf_trust_region = 3
kf_interval = 4
ci_response_space = 4
ci_grad_trust_region = 3
with_dep4 0
natorb = False
canonicalization = True
sorting_mo_energy = False
ao2mo_level = 2
chkfile = /var/folders/3l/j_26z9753t9c2998pwc56hhw0000gn/T/tmpanpwd9lp
max_memory 4000 MB (current use 0 MB)
internal_rotation = False
******** <class 'pyscf.fci.direct_spin1_symm.FCISolver'> ********
max. cycles = 50
conv_tol = 1e-08
davidson only = True
linear dependence = 1e-10
level shift = 0.001
max iter space = 12
max_memory 4000 MB
nroots = 1
pspace_size = 0
spin = None
CI wfn symmetry = None
Active space CI wfn symmetry = A1
CASCI E = -100.0335024685  S^2 = 0.0000000
macro iter 1 (21 JK  4 micro), CASSCF E = -100.034395459517  dE = -0.00089299102  S^2 = 0.0000000
               |grad[o]|=0.000266  |grad[c]|= 0.010221225971771915  |ddm|=0.000626
macro iter 2 (21 JK  4 micro), CASSCF E = -100.035699944084  dE = -0.0013044846  S^2 = 0.0000000
               |grad[o]|=0.0026  |grad[c]|= 0.001468213093531263  |ddm|=0.000578
macro iter 3 (21 JK  4 micro), CASSCF E = -100.035788673396  dE = -8.8729312e-05  S^2 = 0.0000000
               |grad[o]|=0.00103  |grad[c]|= 0.002256397265281062  |ddm|=0.00023
macro iter 4 (21 JK  4 micro), CASSCF E = -100.036318771253  dE = -0.00053009786  S^2 = 0.0000000
               |grad[o]|=0.000635  |grad[c]|= 0.0065674213211069175  |ddm|=0.000311
macro iter 5 (21 JK  4 micro), CASSCF E = -100.036759380163  dE = -0.00044060891  S^2 = 0.0000000
               |grad[o]|=0.0011  |grad[c]|= 0.0020493641327844485  |ddm|=0.000186
macro iter 6 (14 JK  4 micro), CASSCF E = -100.036765657802  dE = -6.2776387e-06  S^2 = 0.0000000
               |grad[o]|=0.00043  |grad[c]|= 0.0001638340613351182  |ddm|=4.84e-05
macro iter 7 (17 JK  4 micro), CASSCF E = -100.036765659824  dE = -2.0224462e-09  S^2 = 0.0000000
               |grad[o]|=7.15e-06  |grad[c]|= 3.5701965714397843e-06  |ddm|=1.24e-06
macro iter 8 (1 JK  1 micro), CASSCF E = -100.036765659825  dE = -3.6948222e-13  S^2 = 0.0000000
               |grad[o]|=4.32e-08  |grad[c]|= 1.1394424221659458e-06  |ddm|=2.85e-08
1-step CASSCF converged in 8 macro (137 JK 29 micro) steps
CASSCF canonicalization
Density matrix diagonal elements [1.99898549e+00 1.99898549e+00 9.13019281e-04 1.11600454e-03]
CASSCF energy = -100.036765659825
CASCI E = -100.036765659825  E(CI) = -7.44248855476917  S^2 = 0.0000000
Natural occ [1.99898549e+00 1.99898549e+00 1.47724780e-03 5.51776021e-04]
Natural orbital (expansion on meta-Lowdin AOs) in CAS space
               #1        #2        #3        #4       
  0 H 1s       0.00000   0.00000   0.62659  -0.18927
  0 H 2s      -0.00000   0.00000   0.06181   0.25916
  0 H 3s       0.00000  -0.00000  -0.07234  -0.18235
  0 H 2px      0.03445   0.00000   0.00000  -0.00000
  0 H 2py     -0.00000   0.03445   0.00000   0.00000
  0 H 2pz     -0.00000   0.00000   0.29369   0.01168
  0 H 3px     -0.00969  -0.00000   0.00000   0.00000
  0 H 3py      0.00000  -0.00969   0.00000   0.00000
  0 H 3pz      0.00000   0.00000   0.11855   0.21193
  1 F 1s       0.00000   0.00000   0.00064   0.00022
  1 F 2s       0.00000   0.00000  -0.21896   0.08605
  1 F 3s       0.00000  -0.00000   0.43637   0.46541
  1 F 4s       0.00000  -0.00000  -0.20624  -0.10711
  1 F 2px      0.99841   0.00000  -0.00000   0.00000
  1 F 2py      0.00000   0.99841   0.00000   0.00000
  1 F 2pz      0.00000   0.00000   0.30833  -0.19786
  1 F 3px      0.01304  -0.00000  -0.00000  -0.00000
  1 F 3py     -0.00000   0.01304  -0.00000  -0.00000
  1 F 3pz     -0.00000   0.00000   0.15048   0.01700
  1 F 4px     -0.02893  -0.00000  -0.00000  -0.00000
  1 F 4py     -0.00000  -0.02893   0.00000  -0.00000
  1 F 4pz     -0.00000   0.00000  -0.00153  -0.00297
  1 F 3dxy     0.00000   0.00000   0.00000  -0.00000
  1 F 3dyz    -0.00000  -0.02683   0.00000   0.00000
  1 F 3dz^2    0.00000  -0.00000   0.17479  -0.72216
  1 F 3dxz    -0.02683   0.00000   0.00000  -0.00000
 1 F 3dx2-y2   0.00000  -0.00000   0.00000  -0.00000
  1 F 4dxy    -0.00000   0.00000  -0.00000  -0.00000
  1 F 4dyz    -0.00000  -0.01340   0.00000   0.00000
  1 F 4dz^2   -0.00000  -0.00000  -0.26241  -0.14923
  1 F 4dxz    -0.01340   0.00000   0.00000  -0.00000
 1 F 4dx2-y2  -0.00000   0.00000  -0.00000   0.00000
<mo_coeff-mcscf|mo_coeff-hf>  1  1    1.00000000
<mo_coeff-mcscf|mo_coeff-hf>  2  2    0.99999909
<mo_coeff-mcscf|mo_coeff-hf>  3  3    0.99999996
<mo_coeff-mcscf|mo_coeff-hf>  4  4    0.99999991
<mo_coeff-mcscf|mo_coeff-hf>  5  5    0.99999991
<mo_coeff-mcscf|mo_coeff-hf>  6  11    0.44816025
<mo_coeff-mcscf|mo_coeff-hf>  6  23    0.57859040
<mo_coeff-mcscf|mo_coeff-hf>  7  14    0.40321986
<mo_coeff-mcscf|mo_coeff-hf>  7  15   -0.49467553
<mo_coeff-mcscf|mo_coeff-hf>  8  8    0.99999995
<mo_coeff-mcscf|mo_coeff-hf>  9  9    0.99999995
<mo_coeff-mcscf|mo_coeff-hf>  10  6   -0.94602358
<mo_coeff-mcscf|mo_coeff-hf>  11  7   -0.86881265
<mo_coeff-mcscf|mo_coeff-hf>  11  10    0.48667908
<mo_coeff-mcscf|mo_coeff-hf>  12  12    0.99999999
<mo_coeff-mcscf|mo_coeff-hf>  13  13    0.99999999
<mo_coeff-mcscf|mo_coeff-hf>  14  10    0.66995785
<mo_coeff-mcscf|mo_coeff-hf>  14  14   -0.46637342
<mo_coeff-mcscf|mo_coeff-hf>  15  11    0.73466251
<mo_coeff-mcscf|mo_coeff-hf>  15  14   -0.54776593
<mo_coeff-mcscf|mo_coeff-hf>  16  16    1.00000000
<mo_coeff-mcscf|mo_coeff-hf>  17  17    1.00000000
<mo_coeff-mcscf|mo_coeff-hf>  18  18    0.99999999
<mo_coeff-mcscf|mo_coeff-hf>  19  19    0.99999999
<mo_coeff-mcscf|mo_coeff-hf>  20  15   -0.57484730
<mo_coeff-mcscf|mo_coeff-hf>  20  23    0.55727760
<mo_coeff-mcscf|mo_coeff-hf>  21  21    0.99999997
<mo_coeff-mcscf|mo_coeff-hf>  22  22    0.99999997
<mo_coeff-mcscf|mo_coeff-hf>  23  20    0.81721776
<mo_coeff-mcscf|mo_coeff-hf>  24  24    0.99999998
<mo_coeff-mcscf|mo_coeff-hf>  25  25    0.99999998
<mo_coeff-mcscf|mo_coeff-hf>  26  26    0.80303497
<mo_coeff-mcscf|mo_coeff-hf>  27  27    0.94467218
<mo_coeff-mcscf|mo_coeff-hf>  28  28    1.00000000
<mo_coeff-mcscf|mo_coeff-hf>  29  29    1.00000000
<mo_coeff-mcscf|mo_coeff-hf>  30  30    1.00000000
<mo_coeff-mcscf|mo_coeff-hf>  31  31    1.00000000
<mo_coeff-mcscf|mo_coeff-hf>  32  32    0.91420560
** Largest CI components **
  [alpha occ-orbitals] [beta occ-orbitals]            CI coefficient
  [0 1]                [0 1]                          -0.999492718919
 ** Mulliken pop on meta-lowdin orthogonal AOs  **
 ** Mulliken pop  **
pop of  0 H 1s        0.52575
pop of  0 H 2s        0.01581
pop of  0 H 3s        0.00643
pop of  0 H 2px       0.00237
pop of  0 H 2py       0.00237
pop of  0 H 2pz       0.00191
pop of  0 H 3px       0.00019
pop of  0 H 3py       0.00019
pop of  0 H 3pz       0.00091
pop of  1 F 1s        2.00000
pop of  1 F 2s        1.83515
pop of  1 F 3s        0.00352
pop of  1 F 4s        0.00155
pop of  1 F 2px       1.99261
pop of  1 F 2py       1.99261
pop of  1 F 2pz       1.60079
pop of  1 F 3px       0.00034
pop of  1 F 3py       0.00034
pop of  1 F 3pz       0.00239
pop of  1 F 4px       0.00167
pop of  1 F 4py       0.00167
pop of  1 F 4pz       0.00152
pop of  1 F 3dxy      0.00000
pop of  1 F 3dyz      0.00144
pop of  1 F 3dz^2     0.00572
pop of  1 F 3dxz      0.00144
pop of  1 F 3dx2-y2    0.00000
pop of  1 F 4dxy      0.00000
pop of  1 F 4dyz      0.00036
pop of  1 F 4dz^2     0.00058
pop of  1 F 4dxz      0.00036
pop of  1 F 4dx2-y2    0.00000
 ** Mulliken atomic charges  **
charge of  0H =      0.44406
charge of  1F =     -0.44406
CASSCF energy: -100.036766



----------------------------------------------------------------------
        PRISM: Open-Source implementation of ab initio methods
                for excited states and spectroscopy

                           Version 0.1

               Copyright (C) 2023 Alexander Sokolov
                                  Carlos E. V. de Moura

        Unless required by applicable law or agreed to in
        writing, software distributed under the GNU General
        Public License v3.0 and is distributed on an "AS IS"
        BASIS, WITHOUT WARRANTIES OR CONDITIONS OF ANY KIND,
        either express or implied.

        See the License for the specific language governing
        permissions and limitations.

        Available at https://github.com/sokolov-group/prism

----------------------------------------------------------------------

Importing Pyscf objects...

Initializing MR-ADC...

IP calculations for different IP-MR-ADC methods
Transforming 1e integrals to MO basis...
Time for transforming 1e integrals:                0.000075 sec

Transforming 2e integrals to MO basis (in-core)...
Time for transforming integrals:                   0.082217 sec

Computing ground-state RDMs...
Time for computing ground-state RDMs:              0.015955 sec

Computing MR-ADC excitation energies...

Method:                                            cvs-ip-mr-adc(2)
Number of MR-ADC roots requested:                  4
Ground-state active-space energy:                 -7.442488554769
Nuclear repulsion energy:                          5.193669463773
Number of basis functions:                         32
Number of core orbitals:                           3
Number of active orbitals:                         4
Number of external orbitals:                       25
Number of electrons:                               10
Number of active electrons:                        (2, 2)
Number of CVS orbitals:                            1
Number of valence (non-CVS) orbitals:              2
Overlap truncation parameter (singles):            1.000000e-06
Overlap truncation parameter (doubles):            1.000000e-10
Number of CASCI states:                            6

Computing T[0']^(1) amplitudes...
Dimension of the [0'] orthonormalized subspace:    16
Smallest eigenvalue of the [0'] overlap metric:    6.935637e-04
Norm of T[0']^(1):                                 0.049766744352
Correlation energy [0']:                          -0.051028119224

Computing T[+1']^(1) amplitudes...
Dimension of the [+1'] orthonormalized subspace:   22
Smallest eigenvalue of the [+1'] overlap metric:   2.758880e-04
Norm of T[+1']^(1):                                0.017241859422
Correlation energy [+1']:                         -0.000002269039

Computing T[-1']^(1) amplitudes...
Dimension of the [-1'] orthonormalized subspace:   23
Smallest eigenvalue of the [-1'] overlap metric:   1.169392e-06
Norm of T[-1']^(1):                                0.046142159570
Correlation energy [-1']:                         -0.006622226974

Computing T[0]^(1) amplitudes...
Norm of T[0]^(1):                                  0.060752153320
Correlation energy [0]:                           -0.022474845163

Computing T[+1]^(1) amplitudes...
Dimension of the [+1] orthonormalized subspace:    4
Smallest eigenvalue of the [+1] overlap metric:    5.072560e-04
Norm of T[+1]^(1):                                 0.040087818606
Correlation energy [+1]:                          -0.014408297518

Computing T[-1]^(1) amplitudes...
Dimension of the [-1] orthonormalized subspace:    4
Smallest eigenvalue of the [-1] overlap metric:    2.758880e-04
Norm of T[-1]^(1):                                 0.069655646914
Correlation energy [-1]:                          -0.057349374262

Computing T[+2]^(1) amplitudes...
Dimension of the [+2] orthonormalized subspace:    16
Smallest eigenvalue of the [+2] overlap metric:    2.000875e-07
Norm of T[+2]^(1):                                 0.122787923107
Correlation energy [+2]:                          -0.008464420280

Computing T[-2]^(1) amplitudes...
Dimension of the [-2] orthonormalized subspace:    16
Smallest eigenvalue of the [-2] overlap metric:    7.601823e-08
Norm of T[-2]^(1):                                 0.176259224864
Correlation energy [-2]:                          -0.054224639975

CASSCF reference energy:                        -100.036765659825
PC-NEVPT2 correlation energy:                     -0.214574192435
Total PC-NEVPT2 energy:                         -100.251339852259

Computing T[0']^(2) amplitudes...
Norm of T[0']^(2):                                 0.009742250345

Time for computing amplitudes:                     0.611637 sec

Dimension of h0 excitation manifold:                       1
Dimension of h1 excitation manifold:                       551
Total dimension of the excitation manifold:                552
Dimension of the orthogonalized excitation manifold:       525

Computing M(h0-h0) block...
Time for computing M(h0-h0) block:                 0.451556 sec

Computing M(h0-h1) blocks...
Time for computing M(h0-h1) blocks:                0.089313 sec

Time for computing preconditioner:                 0.069169 sec

tol 1e-12  toloose 1e-05
max_cycle 50  max_space 109  max_memory 2000  incore True
davidson 0 4  |r|= 1.66  e= [26.31266785 27.02672753 27.02672753 27.02672753]  max|de|=   27  lindep=    1
Old state -> New state
    2     ->     1 
    1     ->     2 
root 1 converged  |r|= 1.42e-18  e= 27.026727534977546  max|de|=    0
root 2 converged  |r|= 2.08e-18  e= 27.026727534977546  max|de|=    0
root 3 converged  |r|=    0  e= 27.026727534977546  max|de|=    0
davidson 1 5  |r|= 0.23  e= [25.50718221 27.02672753 27.02672753 27.02672753]  max|de|= -0.805  lindep= 0.95
Old state -> New state
    2     ->     1 
    3     ->     2 
    1     ->     3 
davidson 2 6  |r|= 0.00171  e= [25.49207659 27.02672753 27.02672753 27.02672753]  max|de|= -0.0151  lindep= 0.986
Old state -> New state
    2     ->     1 
    3     ->     2 
    1     ->     3 
davidson 3 7  |r|= 2.33e-05  e= [25.49207593 27.02672753 27.02672753 27.02672753]  max|de|= -6.6e-07  lindep= 0.999
Old state -> New state
    3     ->     1 
    3     ->     2 
    2     ->     3 
davidson 4 8  |r|= 3.75e-07  e= [25.49207593 27.02672753 27.02672753 27.02672753]  max|de|= -1.1e-10  lindep= 0.978
Old state -> New state
    3     ->     2 
    2     ->     3 
root 0 converged  |r|= 1.25e-08  e= 25.492075928397668  max|de|= -1.78e-14
converged 5 9  |r|= 1.25e-08  e= [25.49207593 27.02672753 27.02672753 27.02672753]  max|de|= -2.84e-14

cvs-ip-mr-adc(2) excitation energies (a.u.):
[[25.49207593]
 [27.02672753]
 [27.02672753]
 [27.02672753]]

cvs-ip-mr-adc(2) excitation energies (eV):
[[693.67507492]
 [735.43509365]
 [735.43509365]
 [735.43509365]]

Total time:                                       1.887270 sec
