[Molden Format]
made by pyscf v[2.6.2]
[Atoms] (AU)
N   1   7     0.00000000000000     0.00000000000000     0.13642000923376
N   2   7     0.00000000000000     0.00000000000000     2.26559016386147
O   3   8     0.00000000000000     0.00000000000000    -2.10289015104286
[GTO]
1 0
 s    8 1.00
                  9046  0.00069961741342552
                  1357  0.0053860546299287
                 309.3   0.027391021189057
                 87.73    0.10315059198201
                 28.56    0.27857066331743
                 10.21    0.44829484945412
                 3.838    0.27808592839527
                0.7466   0.015431561233271
 s    8 1.00
                  9046  -0.00030499009595337
                  1357  -0.0024080263785077
                 309.3   -0.01194444872518
                 87.73  -0.048925992909017
                 28.56   -0.13447272472496
                 10.21   -0.31511257770011
                 3.838   -0.24285783254964
                0.7466     1.0943822068542
 s    1 1.00
                0.2248                   1
 s    1 1.00
               0.06124                   1
 p    3 1.00
                 13.55   0.058905676772132
                 2.917    0.32046110671427
                0.7973    0.75304206179207
 p    1 1.00
                0.2185                   1
 p    1 1.00
               0.05611                   1
 d    1 1.00
                 0.817                   1
 d    1 1.00
                  0.23                   1

2 0
 s    8 1.00
                  9046  0.00069961741342552
                  1357  0.0053860546299287
                 309.3   0.027391021189057
                 87.73    0.10315059198201
                 28.56    0.27857066331743
                 10.21    0.44829484945412
                 3.838    0.27808592839527
                0.7466   0.015431561233271
 s    8 1.00
                  9046  -0.00030499009595337
                  1357  -0.0024080263785077
                 309.3   -0.01194444872518
                 87.73  -0.048925992909017
                 28.56   -0.13447272472496
                 10.21   -0.31511257770011
                 3.838   -0.24285783254964
                0.7466     1.0943822068542
 s    1 1.00
                0.2248                   1
 s    1 1.00
               0.06124                   1
 p    3 1.00
                 13.55   0.058905676772132
                 2.917    0.32046110671427
                0.7973    0.75304206179207
 p    1 1.00
                0.2185                   1
 p    1 1.00
               0.05611                   1
 d    1 1.00
                 0.817                   1
 d    1 1.00
                  0.23                   1

3 0
 s    8 1.00
                 11720  0.00070964594651845
                  1759  0.0054672722921914
                 400.8   0.027823118610189
                 113.7    0.10474773971146
                 37.03    0.28292084635691
                 13.27    0.44849523869833
                 5.025    0.27081688521277
                 1.013    0.01545029160744
 s    8 1.00
                 11720  -0.00031444341168873
                  1759  -0.0024821376810179
                 400.8  -0.012316355381583
                 113.7  -0.050538917343672
                 37.03   -0.13938490331632
                 13.27   -0.32507749481778
                 5.025   -0.22984830758785
                 1.013     1.0953793467883
 s    1 1.00
                0.3023                   1
 s    1 1.00
               0.07896                   1
 p    3 1.00
                  17.7   0.062679166281506
                 3.854    0.33353656587936
                 1.046    0.74123964163973
 p    1 1.00
                0.2753                   1
 p    1 1.00
               0.06856                   1
 d    1 1.00
                 1.185                   1
 d    1 1.00
                 0.332                   1

[5d]
[7f]
[9g]

[MO]
 Sym= A
 Ene=               0
 Spin= Alpha
 Occup=    1.00000
   1    -0.013249932985451
   2    0.00012573270180312
   3      0.01020316243239
   4    0.00046996878699691
   5    6.7948164860036e-17
   6    1.7808481089685e-16
   7    -0.00074031616820456
   8    9.4449490120357e-17
   9    -4.9299489888056e-17
  10     0.014149862839141
  11    3.4968879983419e-17
  12    -1.7769521026009e-16
  13    0.0014520578474853
  14    -0.0015753395586461
  15    3.9662210058988e-17
  16    -8.429779257093e-18
  17    -7.3796919078361e-16
  18    -1.0889140479064e-15
  19    -0.002405627085582
  20    -2.0489375264538e-17
  21    1.804937886944e-16
  22    1.281491087617e-15
  23    -1.5394014690132e-15
  24      0.88405064420052
  25    0.0069527898866476
  26    -0.022292176045717
  27    -0.0041987479079616
  28    -1.4700403675066e-17
  29    1.4472515548336e-16
  30    -0.0039052553317888
  31    -1.4783892359951e-17
  32    -1.4332128449681e-16
  33     0.012148548274697
  34    -6.0769217175578e-17
  35    1.5622191770697e-16
  36    0.0010281349218425
  37    0.0012191713631312
  38    -3.0940914464092e-17
  39    5.6216097397156e-18
  40    -7.6169283461625e-15
  41    -7.2240416859063e-15
  42    -0.0038144114316121
  43    3.9718727103036e-17
  44    8.4333714642944e-17
  45    3.6403333440201e-15
  46    4.7802928081571e-15
  47    -0.0004025539294061
  48    -0.00067906656717316
  49    0.0092606806900813
  50    0.0042182887790495
  51    4.1036330996816e-17
  52     7.57873865446e-17
  53    0.00044444614226271
  54    -5.859538341906e-17
  55    1.3215539660099e-16
  56    0.0039818661359252
  57    5.0577283663776e-17
  58    1.5594560335509e-16
  59    0.00061820713560577
  60    0.00032958948553639
  61    -9.0989921696026e-18
  62    7.2503066572767e-18
  63    2.426722156049e-16
  64    -6.5413867649349e-17
  65    0.00026398947073811
  66    3.6677529564712e-18
  67    8.8722630832336e-17
  68    -5.3289045370177e-16
  69    4.4761872137047e-16
 Sym= A
 Ene=               1
 Spin= Alpha
 Occup=    1.00000
   1      0.88589522605077
   2    0.0078869989917091
   3    -0.024893048321466
   4    -0.013313337350803
   5    -1.4818602125161e-17
   6    -7.8055255746468e-18
   7    -1.2895757811267e-05
   8    -2.2720651260885e-17
   9    -1.1854761215115e-17
  10    -0.011287568899695
  11    3.5639820791377e-18
  12    -1.1587798829454e-18
  13    -0.0045341131653718
  14    0.0017414135038411
  15    5.6484000794627e-18
  16    2.2867978273275e-18
  17    -1.9129419785027e-15
  18    -2.2702888593541e-14
  19    -0.0062970368785022
  20    -1.6999986026155e-17
  21    -6.22143366851e-18
  22    -5.5114867878645e-15
  23    4.3305758359517e-15
  24     0.012556445075079
  25    -0.00084388966986546
  26     0.021261967203817
  27     0.013753534653919
  28    3.6639341594954e-17
  29    1.2843507500394e-17
  30    0.00074757854359501
  31    3.887213583969e-17
  32    1.4102564870829e-17
  33    -0.0093782641702729
  34    -7.5553918135714e-19
  35    2.0066117150938e-18
  36    -0.0024531635028211
  37    -0.00065149256213737
  38    6.3344378330259e-20
  39    6.227520245602e-19
  40    -1.3423889923264e-15
  41    -1.6973063830351e-15
  42    0.0014231369648143
  43    -9.7582045943039e-18
  44    -3.4461237005702e-18
  45    6.5845615709779e-16
  46    -7.4988241940414e-16
  47    -4.4331264553878e-07
  48    0.00023220213523285
  49    0.0021259264552028
  50    -0.0016630435560817
  51    -2.5688242667384e-17
  52    -2.1090556226752e-17
  53    -0.00047479527645009
  54    -2.7480174447972e-17
  55    -1.8374603553165e-17
  56    -0.0014802621277128
  57    -3.5693502395926e-18
  58    -2.0196350488771e-19
  59    0.0001353614664115
  60    -0.0005408592781434
  61    -1.4219098731676e-18
  62    -7.0138825022722e-19
  63    -4.358950817765e-16
  64    6.2421687853006e-16
  65    -0.00099565838128262
  66    -4.9816739197108e-18
  67    -2.3795049684798e-18
  68    2.8933106251783e-15
  69    2.0272223915032e-15
 Sym= A
 Ene=               2
 Spin= Alpha
 Occup=    1.00000
   1    -1.2092357134174e-15
   2    -1.4544449981866e-16
   3    4.7050960642615e-15
   4    1.5640077543683e-15
   5    6.7433291181901e-30
   6    6.3211012836411e-30
   7    -2.6258825517684e-16
   8    -6.5497980238496e-30
   9    -2.188119888609e-30
  10    4.9637701913965e-15
  11    2.4402452224681e-30
  12    -5.4000364740579e-30
  13    1.0756793936286e-15
  14    -2.9777731936466e-16
  15    2.2838533269815e-30
  16    -7.9453958137016e-32
  17    3.1297778129776e-18
  18    2.4438805385278e-18
  19    -9.621742094162e-17
  20    -7.8206632987428e-30
  21    4.0878690328748e-30
  22    1.4090619780464e-17
  23    8.2207621625842e-18
  24    2.3262364848875e-14
  25    2.7755646040372e-15
  26    -8.3721556775761e-15
  27    -2.5566391319816e-15
  28    1.3819239234272e-29
  29    7.9973410598673e-30
  30    -5.0218484987316e-16
  31    9.1393739071931e-30
  32    -3.0391318601768e-30
  33    3.7839639861271e-15
  34    -3.3067577047186e-30
  35    4.0794932506275e-30
  36    3.5344673061995e-16
  37    -6.8106115261249e-16
  38    -3.1653645546166e-30
  39    -1.4413682698452e-30
  40    1.3941285193249e-16
  41    8.1962569652376e-17
  42    -8.1060561828647e-16
  43    -2.2946970057958e-30
  44    2.1845193520149e-30
  45    -3.4122716514801e-17
  46    -1.9728671222382e-17
  47    -1.9519330653887e-17
  48    -1.4532675914618e-16
  49    2.0972741946091e-15
  50    1.2490989017211e-15
  51    1.8400538159719e-31
  52    1.0380561073796e-30
  53    1.3259296755585e-16
  54    -4.6439905493118e-30
  55    3.145825114266e-30
  56    8.7698239194676e-16
  57    1.0849492636557e-30
  58    4.5286387018435e-30
  59    7.0292842215611e-17
  60    8.314011367662e-17
  61    -2.5863199832714e-31
  62    1.6125742253155e-31
  63    1.5891085327948e-19
  64    7.9326920562565e-20
  65    -5.2471952726341e-17
  66    -1.8312787848324e-30
  67    2.1544869679846e-30
  68    -5.1292168368819e-18
  69    -3.1066492338554e-18
 Sym= A
 Ene=               3
 Spin= Alpha
 Occup=    1.00000
   1    -0.00069699272546506
   2    0.00017568394576236
   3    -0.006048001940306
   4    -0.001999767980412
   5    -9.1615791214702e-18
   6    -7.8755275268978e-18
   7    0.00034465685975828
   8    8.0627636173241e-18
   9    3.2063708938827e-18
  10    -0.0064245714729178
  11    -3.2020245768101e-18
  12    6.6468170105146e-18
  13    -0.0013888479951968
  14    0.00038346464966133
  15    -3.1362486914019e-18
  16    1.0060407473942e-19
  17    1.844288489571e-17
  18    4.9718498813233e-17
  19    0.00013925264779638
  20    9.6269156756942e-18
  21    -3.8118040230986e-18
  22    -3.4828490646731e-17
  23    1.9987161083969e-17
  24    -0.028835320017592
  25    -0.0036111372090065
  26     0.010826453020204
  27    0.0032900921354683
  28    -1.4684560630314e-17
  29    -9.8076880753067e-18
  30    0.00065239300128937
  31    -1.2843041083943e-17
  32    2.4061243234688e-18
  33    -0.0048899668673401
  34    4.4248379946635e-18
  35    -4.9535590636612e-18
  36    -0.00045269531580653
  37    0.00088933483182789
  38     3.98021175537e-18
  39    1.2905439893871e-18
  40    2.1542937030631e-16
  41    -5.9111232128855e-17
  42    0.0010474874679506
  43    3.0963180909483e-18
  44    -2.1343277784041e-18
  45    -1.2370412835399e-16
  46    -1.0115448127078e-16
  47    0.00011248725970182
  48    0.00018845519030989
  49    -0.0027327037965069
  50    -0.001621631024364
  51    3.8503435227762e-19
  52    -1.3257971746093e-18
  53    -0.00017223503080155
  54    5.9184616676378e-18
  55    -3.1252132366991e-18
  56    -0.0011381606742937
  57    -1.2362973812178e-18
  58    -5.5228474357756e-18
  59    -9.177208596885e-05
  60    -0.00010729613352721
  61    3.3650556952807e-19
  62    -1.1970133909831e-19
  63    -7.3722307143496e-18
  64    1.714425206386e-18
  65    7.0294548982609e-05
  66    2.0070299375298e-18
  67    -2.5470889470726e-18
  68    1.3789624793064e-17
  69    -6.9242167078913e-18
 Sym= A
 Ene=               4
 Spin= Alpha
 Occup=    1.00000
   1    1.4398786887968e-15
   2    -1.8939012962632e-17
   3    3.8777015525103e-16
   4    9.3947894618472e-16
   5    3.843358124611e-20
   6    -3.1680367595943e-19
   7    -4.3657014552717e-19
   8    -1.3200369399227e-17
   9    3.4828898087676e-18
  10    1.5669906273174e-16
  11    -4.5350084346861e-19
  12    -2.0286818912854e-18
  13    2.3896612484126e-16
  14    3.272091835289e-18
  15    1.5449810212965e-18
  16    -1.4736826770972e-18
  17    3.1781138955418e-05
  18    9.8121956535519e-06
  19    4.8629158541113e-17
  20    -9.9408097037564e-18
  21    1.0021521114869e-17
  22    0.00013259148069605
  23    4.0936263771064e-05
  24    5.5905074918578e-15
  25    3.1075238221921e-17
  26    -3.4152418192889e-16
  27    -8.5848500894145e-16
  28    1.2425404845843e-17
  29    1.4079845437915e-20
  30    -1.3357039655332e-17
  31    1.1212613328932e-17
  32    -8.4462998310054e-18
  33    2.1307749335185e-16
  34    -6.1716631661386e-19
  35    1.8385498359199e-18
  36    1.8743728915992e-16
  37    3.5671670748461e-18
  38    -2.2178307534976e-18
  39    1.8671305499679e-18
  40     0.001340394068817
  41    0.00041383258303529
  42    -5.2959338537832e-17
  43    -5.2048320585216e-18
  44    2.5544286285114e-18
  45    -0.00031802227146359
  46    -9.8186055377891e-05
  47    7.7518719273278e-17
  48    6.322464765802e-18
  49    -3.7943484913287e-17
  50    -1.0222831686831e-16
  51    2.1758649883061e-18
  52    -9.3688605502889e-19
  53    2.3242049997886e-18
  54    -2.7580564690357e-18
  55    5.7131706762249e-18
  56    -3.1485279158764e-17
  57    1.0154435581278e-18
  58    1.2153086490589e-18
  59    -6.7852922418878e-17
  60    1.5110956167344e-18
  61    2.3806345556548e-19
  62    5.1835358106404e-19
  63    1.4224804069099e-06
  64    4.3916255969922e-07
  65    -1.3456704168524e-17
  66    -2.2054585345678e-18
  67    1.297168116476e-18
  68    -4.8861278494449e-05
  69    -1.5085456207501e-05
 Sym= A
 Ene=               5
 Spin= Alpha
 Occup=    1.00000
   1    7.4330800665275e-16
   2    4.0950350860604e-17
   3    -8.8831114514674e-16
   4    -6.6915924071278e-16
   5    -1.6551986125384e-20
   6    1.3644374809221e-19
   7    4.5922741347722e-17
   8    5.6851768460765e-18
   9    -1.5000029231086e-18
  10    -8.3559139193094e-16
  11    1.9531400198641e-19
  12    8.7371802305445e-19
  13    -2.8293997687109e-16
  14    4.748272837983e-17
  15    -6.6539550457522e-19
  16    6.3468413819317e-19
  17    -1.3687598785088e-05
  18    -4.226012734985e-06
  19    -1.7069077798394e-17
  20    4.2813256494895e-18
  21    -4.3160857475342e-18
  22    -5.7104907179603e-05
  23    -1.7630831890317e-05
  24    8.1504254714868e-16
  25    -4.6116650006274e-16
  26    1.4407943369277e-15
  27    7.8857016083944e-16
  28    -5.3514203825693e-18
  29    -6.0870092558962e-21
  30    7.5979265196813e-17
  31    -4.8290710441705e-18
  32    3.6376633773849e-18
  33    -6.6254059732553e-16
  34    2.6580244579582e-19
  35    -7.9182973821914e-19
  36    -1.3578750141132e-16
  37    1.2165889144133e-16
  38    9.5518266337857e-19
  39    -8.0413584427986e-19
  40    -0.00057728504487742
  41    -0.00017823347883261
  42    1.3766972151371e-16
  43    2.2416290803979e-18
  44    -1.1001449851598e-18
  45    0.00013696681112283
  46    4.2287734074593e-05
  47    2.0837123683543e-17
  48    1.932419282402e-17
  49    -3.0103079361482e-16
  50    -1.5410597170601e-16
  51    -9.3710756049334e-19
  52    4.0349907438057e-19
  53    -2.3157568471061e-17
  54    1.1878375846364e-18
  55    -2.4605641185436e-18
  56    -1.2396012913309e-16
  57    -4.3733388083755e-19
  58    -5.2341475643275e-19
  59    1.9936076926752e-17
  60    -1.4361963047121e-17
  61    -1.0253035972775e-19
  62    -2.2324557872062e-19
  63    -6.1263824175121e-07
  64    -1.8914284189015e-07
  65    1.2998184209566e-17
  66    9.4985076976308e-19
  67    -5.5866668412873e-19
  68    2.1043725874738e-05
  69    6.4971523503355e-06
 Sym= A
 Ene=               6
 Spin= Alpha
 Occup=    1.00000
   1    2.8676407385213e-15
   2    5.0491054230536e-17
   3    -1.0682297675906e-15
   4    -8.5044356397308e-16
   5    -3.4911528905444e-19
   6    -7.559786524487e-19
   7    5.0868049198891e-17
   8    3.1735503641612e-18
   9    -9.9663378131852e-18
  10    -9.8614078753459e-16
  11    6.7167169170705e-19
  12    1.019239813801e-18
  13    -3.5703231456439e-16
  14    5.3575250158116e-17
  15    -1.2369013394006e-18
  16    3.3110320361953e-18
  17    -8.9159921905476e-06
  18    2.8878424530164e-05
  19    -2.891177978927e-17
  20    8.9541554430396e-18
  21    -9.42712505031e-18
  22    -3.7197333196831e-05
  23    0.00012048130572123
  24    1.5710896986851e-15
  25    -5.1434784087559e-16
  26    1.6820607014546e-15
  27    9.9225183015528e-16
  28    7.0795621088524e-19
  29    1.1030576853527e-17
  30    8.1186324921248e-17
  31    -8.7877586494652e-18
  32    9.5677171482358e-18
  33    -7.8384690441051e-16
  34    4.8123903192911e-19
  35    -1.7439228968815e-18
  36    -1.6917533943461e-16
  37    1.4179055554735e-16
  38    3.8992387626491e-19
  39    -3.2468810552406e-18
  40    -0.00037603501554625
  41    0.0012179698630302
  42    1.5701271934203e-16
  43    3.3826136023798e-18
  44    -2.7275628050454e-18
  45    8.9218192934215e-05
  46    -0.00028897587035294
  47    5.223690020677e-17
  48    2.2963272998363e-17
  49    -3.4109891850752e-16
  50    -1.8222342105484e-16
  51    -9.3227348694502e-19
  52    1.1704807396439e-18
  53    -2.3820230331387e-17
  54    5.878964297367e-18
  55    -2.4738370472059e-18
  56    -1.4232682166035e-16
  57    -5.1338924557892e-19
  58    5.6127334396947e-19
  59    3.0318351482128e-17
  60    -1.4013106621946e-17
  61    1.5222068040726e-19
  62    -4.0272704978479e-19
  63    -3.9905156833211e-07
  64    1.292558902561e-06
  65    1.6652478597352e-17
  66    2.0079225350918e-18
  67    -1.1652435926195e-18
  68    1.3707619401806e-05
  69    -4.4398558589728e-05
 Sym= A
 Ene=               7
 Spin= Alpha
 Occup=    1.00000
   1    -6.1211338158144e-16
   2    7.2241018644206e-18
   3    -3.25152218957e-16
   4    1.9748736940024e-16
   5    2.3046500055183e-19
   6    4.9905104097842e-19
   7    2.3251184228634e-17
   8    -2.0950128844182e-18
   9    6.5791838530364e-18
  10    -4.0773068265299e-16
  11    -4.433981548798e-19
  12    -6.7284480330108e-19
  13    -4.7509451495019e-18
  14    2.4354218677056e-17
  15    8.1653091455722e-19
  16    -2.1857471687236e-18
  17    5.8858639593219e-06
  18    -1.9063780637069e-05
  19    2.3538158686007e-17
  20    -5.9110144866077e-18
  21    6.2232407445374e-18
  22    2.4555701506778e-05
  23    -7.9534435154503e-05
  24    -9.4502498255106e-16
  25    -2.563992487377e-16
  26    6.8520223097361e-16
  27    -8.4818588728698e-17
  28    -4.6732591745561e-19
  29    -7.2817236732332e-18
  30    4.1093336333047e-17
  31    5.8011718051713e-18
  32    -6.3160481259996e-18
  33    -2.835058136261e-16
  34    -3.1768628027259e-19
  35    1.1512366376465e-18
  36    3.4748774435028e-17
  37    6.7887655248687e-17
  38    -2.5740862323516e-19
  39    2.1433993144002e-18
  40    0.00024823832259903
  41    -0.00080402967507296
  42    6.0996584680949e-17
  43    -2.2330082858199e-18
  44    1.8005779653417e-18
  45    -5.8897107034255e-05
  46    0.00019076430558445
  47    -5.9099136849379e-18
  48    1.532663674143e-17
  49    -2.0093214071382e-16
  50    -1.4235235638564e-16
  51    6.1543514936632e-19
  52    -7.7268284276043e-19
  53    -1.1998518401422e-17
  54    -3.8809441708862e-18
  55    1.6330896286152e-18
  56    -8.6128905353952e-17
  57    3.3891069458861e-19
  58    -3.705165508352e-19
  59    -3.2463403869384e-17
  60    -8.1320065270898e-18
  61    -1.0048647809055e-19
  62    2.6585719711243e-19
  63    2.6343262698781e-07
  64    -8.5326882545725e-07
  65    9.6683640736747e-19
  66    -1.3255140425726e-18
  67    7.6922629518228e-19
  68    -9.0490414624538e-06
  69    2.9309229825832e-05
